ITEM: TIMESTEP
0
ITEM: NUMBER OF ATOMS
32
ITEM: BOX BOUNDS pp pp pp
0.0000000000000000e+00 8.0000000000000000e+00
0.0000000000000000e+00 8.0000000000000000e+00
0.0000000000000000e+00 8.0000000000000000e+00
ITEM: ATOMS id type xs ys zs
1 1 0 0 0
5 1 0.5 0 0
2 1 0.25 0 0.25
6 1 0.75 0 0.25
3 1 0.25 0.25 0
7 1 0.75 0.25 0
4 1 0 0.25 0.25
8 1 0.5 0.25 0.25
17 1 0 0 0.5
21 1 0.5 0 0.5
18 1 0.25 0 0.75
22 1 0.75 0 0.75
19 1 0.25 0.25 0.5
23 1 0.75 0.25 0.5
20 1 0 0.25 0.75
24 1 0.5 0.25 0.75
9 1 0 0.5 0
13 1 0.5 0.5 0
10 1 0.25 0.5 0.25
14 1 0.75 0.5 0.25
11 1 0.25 0.75 0
15 1 0.75 0.75 0
12 1 0 0.75 0.25
16 1 0.5 0.75 0.25
25 1 0 0.5 0.5
29 1 0.5 0.5 0.5
26 1 0.25 0.5 0.75
30 1 0.75 0.5 0.75
27 1 0.25 0.75 0.5
31 1 0.75 0.75 0.5
28 1 0 0.75 0.75
32 1 0.5 0.75 0.75
ITEM: TIMESTEP
1
ITEM: NUMBER OF ATOMS
32
ITEM: BOX BOUNDS pp pp pp
-4.0000000000000001e-03 8.0039999999999996e+00
-4.0000000000000001e-03 8.0039999999999996e+00
-4.0000000000000001e-03 8.0039999999999996e+00
ITEM: ATOMS id type xs ys zs
1 1 0 0 0
5 1 0.5 0 0
2 1 0.25 0 0.25
6 1 0.75 0 0.25
3 1 0.25 0.25 0
7 1 0.75 0.25 0
4 1 0 0.25 0.25
8 1 0.5 0.25 0.25
17 1 0 0 0.5
21 1 0.5 0 0.5
18 1 0.25 0 0.75
22 1 0.75 0 0.75
19 1 0.25 0.25 0.5
23 1 0.75 0.25 0.5
20 1 0 0.25 0.75
24 1 0.5 0.25 0.75
9 1 0 0.5 0
13 1 0.5 0.5 0
10 1 0.25 0.5 0.25
14 1 0.75 0.5 0.25
11 1 0.25 0.75 0
15 1 0.75 0.75 0
12 1 0 0.75 0.25
16 1 0.5 0.75 0.25
25 1 0 0.5 0.5
29 1 0.5 0.5 0.5
26 1 0.25 0.5 0.75
30 1 0.75 0.5 0.75
27 1 0.25 0.75 0.5
31 1 0.75 0.75 0.5
28 1 0 0.75 0.75
32 1 0.5 0.75 0.75
ITEM: TIMESTEP
2
ITEM: NUMBER OF ATOMS
32
ITEM: BOX BOUNDS pp pp pp
-8.0000000000000002e-03 8.0079999999999991e+00
-8.0000000000000002e-03 8.0079999999999991e+00
-8.0000000000000002e-03 8.0079999999999991e+00
ITEM: ATOMS id type xs ys zs
1 1 0 0 0
5 1 0.5 0 0
2 1 0.25 0 0.25
6 1 0.75 0 0.25
3 1 0.25 0.25 0
7 1 0.75 0.25 0
4 1 0 0.25 0.25
8 1 0.5 0.25 0.25
17 1 0 0 0.5
21 1 0.5 0 0.5
18 1 0.25 0 0.75
22 1 0.75 0 0.75
19 1 0.25 0.25 0.5
23 1 0.75 0.25 0.5
20 1 0 0.25 0.75
24 1 0.5 0.25 0.75
9 1 0 0.5 0
13 1 0.5 0.5 0
10 1 0.25 0.5 0.25
14 1 0.75 0.5 0.25
11 1 0.25 0.75 0
15 1 0.75 0.75 0
12 1 0 0.75 0.25
16 1 0.5 0.75 0.25
25 1 0 0.5 0.5
29 1 0.5 0.5 0.5
26 1 0.25 0.5 0.75
30 1 0.75 0.5 0.75
27 1 0.25 0.75 0.5
31 1 0.75 0.75 0.5
28 1 0 0.75 0.75
32 1 0.5 0.75 0.75
ITEM: TIMESTEP
3
ITEM: NUMBER OF ATOMS
32
ITEM: BOX BOUNDS pp pp pp
-1.2000000000000000e-02 8.0119999999999987e+00
-1.2000000000000000e-02 8.0119999999999987e+00
-1.2000000000000000e-02 8.0119999999999987e+00
ITEM: ATOMS id type xs ys zs
1 1 0 0 0
5 1 0.5 0 0
2 1 0.25 0 0.25
6 1 0.75 0 0.25
3 1 0.25 0.25 0
7 1 0.75 0.25 0
4 1 0 0.25 0.25
8 1 0.5 0.25 0.25
17 1 0 0 0.5
21 1 0.5 0 0.5
18 1 0.25 0 0.75
22 1 0.75 0 0.75
19 1 0.25 0.25 0.5
23 1 0.75 0.25 0.5
20 1 0 0.25 0.75
24 1 0.5 0.25 0.75
9 1 0 0.5 0
13 1 0.5 0.5 0
10 1 0.25 0.5 0.25
14 1 0.75 0.5 0.25
11 1 0.25 0.75 0
15 1 0.75 0.75 0
12 1 0 0.75 0.25
16 1 0.5 0.75 0.25
25 1 0 0.5 0.5
29 1 0.5 0.5 0.5
26 1 0.25 0.5 0.75
30 1 0.75 0.5 0.75
27 1 0.25 0.75 0.5
31 1 0.75 0.75 0.5
28 1 0 0.75 0.75
32 1 0.5 0.75 0.75
ITEM: TIMESTEP
4
ITEM: NUMBER OF ATOMS
32
ITEM: BOX BOUNDS pp pp pp
-1.6000000000000000e-02 8.0159999999999982e+00
-1.6000000000000000e-02 8.0159999999999982e+00
-1.6000000000000000e-02 8.0159999999999982e+00
ITEM: ATOMS id type xs ys zs
1 1 0 0 0
5 1 0.5 0 0
2 1 0.25 0 0.25
6 1 0.75 0 0.25
3 1 0.25 0.25 0
7 1 0.75 0.25 0
4 1 0 0.25 0.25
8 1 0.5 0.25 0.25
17 1 0 0 0.5
21 1 0.5 0 0.5
18 1 0.25 0 0.75
22 1 0.75 0 0.75
19 1 0.25 0.25 0.5
23 1 0.75 0.25 0.5
20 1 0 0.25 0.75
24 1 0.5 0.25 0.75
9 1 0 0.5 0
13 1 0.5 0.5 0
10 1 0.25 0.5 0.25
14 1 0.75 0.5 0.25
11 1 0.25 0.75 0
15 1 0.75 0.75 0
12 1 0 0.75 0.25
16 1 0.5 0.75 0.25
25 1 0 0.5 0.5
29 1 0.5 0.5 0.5
26 1 0.25 0.5 0.75
30 1 0.75 0.5 0.75
27 1 0.25 0.75 0.5
31 1 0.75 0.75 0.5
28 1 0 0.75 0.75
32 1 0.5 0.75 0.75
ITEM: TIMESTEP
5
ITEM: NUMBER OF ATOMS
32
ITEM: BOX BOUNDS pp pp pp
-2.0000000000000000e-02 8.0199999999999978e+00
-2.0000000000000000e-02 8.0199999999999978e+00
-2.0000000000000000e-02 8.0199999999999978e+00
ITEM: ATOMS id type xs ys zs
1 1 0 0 0
5 1 0.5 0 0
2 1 0.25 0 0.25
6 1 0.75 0 0.25
3 1 0.25 0.25 0
7 1 0.75 0.25 0
4 1 0 0.25 0.25
8 1 0.5 0.25 0.25
17 1 0 0 0.5
21 1 0.5 0 0.5
18 1 0.25 0 0.75
22 1 0.75 0 0.75
19 1 0.25 0.25 0.5
23 1 0.75 0.25 0.5
20 1 0 0.25 0.75
24 1 0.5 0.25 0.75
9 1 0 0.5 0
13 1 0.5 0.5 0
10 1 0.25 0.5 0.25
14 1 0.75 0.5 0.25
11 1 0.25 0.75 0
15 1 0.75 0.75 0
12 1 0 0.75 0.25
16 1 0.5 0.75 0.25
25 1 0 0.5 0.5
29 1 0.5 0.5 0.5
26 1 0.25 0.5 0.75
30 1 0.75 0.5 0.75
27 1 0.25 0.75 0.5
31 1 0.75 0.75 0.5
28 1 0 0.75 0.75
32 1 0.5 0.75 0.75
ITEM: TIMESTEP
6
ITEM: NUMBER OF ATOMS
32
ITEM: BOX BOUNDS pp pp pp
-2.4000000000000000e-02 8.0239999999999974e+00
-2.4000000000000000e-02 8.0239999999999974e+00
-2.4000000000000000e-02 8.0239999999999974e+00
ITEM: ATOMS id type xs ys zs
1 1 0 0 0
5 1 0.5 0 0
2 1 0.25 0 0.25
6 1 0.75 0 0.25
3 1 0.25 0.25 0
7 1 0.75 0.25 0
4 1 0 0.25 0.25
8 1 0.5 0.25 0.25
17 1 0 0 0.5
21 1 0.5 0 0.5
18 1 0.25 0 0.75
22 1 0.75 0 0.75
19 1 0.25 0.25 0.5
23 1 0.75 0.25 0.5
20 1 0 0.25 0.75
24 1 0.5 0.25 0.75
9 1 0 0.5 0
13 1 0.5 0.5 0
10 1 0.25 0.5 0.25
14 1 0.75 0.5 0.25
11 1 0.25 0.75 0
15 1 0.75 0.75 0
12 1 0 0.75 0.25
16 1 0.5 0.75 0.25
25 1 0 0.5 0.5
29 1 0.5 0.5 0.5
26 1 0.25 0.5 0.75
30 1 0.75 0.5 0.75
27 1 0.25 0.75 0.5
31 1 0.75 0.75 0.5
28 1 0 0.75 0.75
32 1 0.5 0.75 0.75
ITEM: TIMESTEP
7
ITEM: NUMBER OF ATOMS
32
ITEM: BOX BOUNDS pp pp pp
-2.8000000000000004e-02 8.0279999999999969e+00
-2.8000000000000004e-02 8.0279999999999969e+00
-2.8000000000000004e-02 8.0279999999999969e+00
ITEM: ATOMS id type xs ys zs
1 1 0 0 0
5 1 0.5 0 0
2 1 0.25 0 0.25
6 1 0.75 0 0.25
3 1 0.25 0.25 0
7 1 0.75 0.25 0
4 1 0 0.25 0.25
8 1 0.5 0.25 0.25
17 1 0 0 0.5
21 1 0.5 0 0.5
18 1 0.25 0 0.75
22 1 0.75 0 0.75
19 1 0.25 0.25 0.5
23 1 0.75 0.25 0.5
20 1 0 0.25 0.75
24 1 0.5 0.25 0.75
9 1 0 0.5 0
13 1 0.5 0.5 0
10 1 0.25 0.5 0.25
14 1 0.75 0.5 0.25
11 1 0.25 0.75 0
15 1 0.75 0.75 0
12 1 0 0.75 0.25
16 1 0.5 0.75 0.25
25 1 0 0.5 0.5
29 1 0.5 0.5 0.5
26 1 0.25 0.5 0.75
30 1 0.75 0.5 0.75
27 1 0.25 0.75 0.5
31 1 0.75 0.75 0.5
28 1 0 0.75 0.75
32 1 0.5 0.75 0.75
ITEM: TIMESTEP
8
ITEM: NUMBER OF ATOMS
32
ITEM: BOX BOUNDS pp pp pp
-3.2000000000000008e-02 8.0319999999999965e+00
-3.2000000000000008e-02 8.0319999999999965e+00
-3.2000000000000008e-02 8.0319999999999965e+00
ITEM: ATOMS id type xs ys zs
1 1 0 0 0
5 1 0.5 0 0
2 1 0.25 0 0.25
6 1 0.75 0 0.25
3 1 0.25 0.25 0
7 1 0.75 0.25 0
4 1 0 0.25 0.25
8 1 0.5 0.25 0.25
17 1 0 0 0.5
21 1 0.5 0 0.5
18 1 0.25 0 0.75
22 1 0.75 0 0.75
19 1 0.25 0.25 0.5
23 1 0.75 0.25 0.5
20 1 0 0.25 0.75
24 1 0.5 0.25 0.75
9 1 0 0.5 0
13 1 0.5 0.5 0
10 1 0.25 0.5 0.25
14 1 0.75 0.5 0.25
11 1 0.25 0.75 0
15 1 0.75 0.75 0
12 1 0 0.75 0.25
16 1 0.5 0.75 0.25
25 1 0 0.5 0.5
29 1 0.5 0.5 0.5
26 1 0.25 0.5 0.75
30 1 0.75 0.5 0.75
27 1 0.25 0.75 0.5
31 1 0.75 0.75 0.5
28 1 0 0.75 0.75
32 1 0.5 0.75 0.75
ITEM: TIMESTEP
9
ITEM: NUMBER OF ATOMS
32
ITEM: BOX BOUNDS pp pp pp
-3.6000000000000011e-02 8.0359999999999960e+00
-3.6000000000000011e-02 8.0359999999999960e+00
-3.6000000000000011e-02 8.0359999999999960e+00
ITEM: ATOMS id type xs ys zs
1 1 0 0 0
5 1 0.5 0 0
2 1 0.25 0 0.25
6 1 0.75 0 0.25
3 1 0.25 0.25 0
7 1 0.75 0.25 0
4 1 0 0.25 0.25
8 1 0.5 0.25 0.25
17 1 0 0 0.5
21 1 0.5 0 0.5
18 1 0.25 0 0.75
22 1 0.75 0 0.75
19 1 0.25 0.25 0.5
23 1 0.75 0.25 0.5
20 1 0 0.25 0.75
24 1 0.5 0.25 0.75
9 1 0 0.5 0
13 1 0.5 0.5 0
10 1 0.25 0.5 0.25
14 1 0.75 0.5 0.25
11 1 0.25 0.75 0
15 1 0.75 0.75 0
12 1 0 0.75 0.25
16 1 0.5 0.75 0.25
25 1 0 0.5 0.5
29 1 0.5 0.5 0.5
26 1 0.25 0.5 0.75
30 1 0.75 0.5 0.75
27 1 0.25 0.75 0.5
31 1 0.75 0.75 0.5
28 1 0 0.75 0.75
32 1 0.5 0.75 0.75
ITEM: TIMESTEP
10
ITEM: NUMBER OF ATOMS
32
ITEM: BOX BOUNDS pp pp pp
-4.0000000000000015e-02 8.0399999999999956e+00
-4.0000000000000015e-02 8.0399999999999956e+00
-4.0000000000000015e-02 8.0399999999999956e+00
ITEM: ATOMS id type xs ys zs
1 1 0 0 0
5 1 0.5 0 0
2 1 0.25 0 0.25
6 1 0.75 0 0.25
3 1 0.25 0.25 0
7 1 0.75 0.25 0
4 1 0 0.25 0.25
8 1 0.5 0.25 0.25
17 1 0 0 0.5
21 1 0.5 0 0.5
18 1 0.25 0 0.75
22 1 0.75 0 0.75
19 1 0.25 0.25 0.5
23 1 0.75 0.25 0.5
20 1 0 0.25 0.75
24 1 0.5 0.25 0.75
9 1 0 0.5 0
13 1 0.5 0.5 0
10 1 0.25 0.5 0.25
14 1 0.75 0.5 0.25
11 1 0.25 0.75 0
15 1 0.75 0.75 0
12 1 0 0.75 0.25
16 1 0.5 0.75 0.25
25 1 0 0.5 0.5
29 1 0.5 0.5 0.5
26 1 0.25 0.5 0.75
30 1 0.75 0.5 0.75
27 1 0.25 0.75 0.5
31 1 0.75 0.75 0.5
28 1 0 0.75 0.75
32 1 0.5 0.75 0.75
ITEM: TIMESTEP
11
ITEM: NUMBER OF ATOMS
32
ITEM: BOX BOUNDS pp pp pp
-4.4000000000000018e-02 8.0439999999999952e+00
-4.4000000000000018e-02 8.0439999999999952e+00
-4.4000000000000018e-02 8.0439999999999952e+00
ITEM: ATOMS id type xs ys zs
1 1 0 0 0
5 1 0.5 0 0
2 1 0.25 0 0.25
6 1 0.75 0 0.25
3 1 0.25 0.25 0
7 1 0.75 0.25 0
4 1 0 0.25 0.25
8 1 0.5 0.25 0.25
17 1 0 0 0.5
21 1 0.5 0 0.5
18 1 0.25 0 0.75
22 1 0.75 0 0.75
19 1 0.25 0.25 0.5
23 1 0.75 0.25 0.5
20 1 0 0.25 0.75
24 1 0.5 0.25 0.75
9 1 0 0.5 0
13 1 0.5 0.5 0
10 1 0.25 0.5 0.25
14 1 0.75 0.5 0.25
11 1 0.25 0.75 0
15 1 0.75 0.75 0
12 1 0 0.75 0.25
16 1 0.5 0.75 0.25
25 1 0 0.5 0.5
29 1 0.5 0.5 0.5
26 1 0.25 0.5 0.75
30 1 0.75 0.5 0.75
27 1 0.25 0.75 0.5
31 1 0.75 0.75 0.5
28 1 0 0.75 0.75
32 1 0.5 0.75 0.75
ITEM: TIMESTEP
12
ITEM: NUMBER OF ATOMS
32
ITEM: BOX BOUNDS pp pp pp
-4.8000000000000022e-02 8.0479999999999947e+00
-4.8000000000000022e-02 8.0479999999999947e+00
-4.8000000000000022e-02 8.0479999999999947e+00
ITEM: ATOMS id type xs ys zs
1 1 0 0 0
5 1 0.5 0 0
2 1 0.25 0 0.25
6 1 0.75 0 0.25
3 1 0.25 0.25 8.57077e-19
7 1 0.75 0.25 0
4 1 0 0.25 0.25
8 1 0.5 0.25 0.25
17 1 0 0 0.5
21 1 0.5 0 0.5
18 1 0.25 0 0.75
22 1 0.75 0 0.75
19 1 0.25 0.25 0.5
23 1 0.75 0.25 0.5
20 1 0 0.25 0.75
24 1 0.5 0.25 0.75
9 1 0 0.5 0
13 1 0.5 0.5 0
10 1 0.25 0.5 0.25
14 1 0.75 0.5 0.25
11 1 0.25 0.75 0
15 1 0.75 0.75 0
12 1 0 0.75 0.25
16 1 0.5 0.75 0.25
25 1 0 0.5 0.5
29 1 0.5 0.5 0.5
26 1 0.25 0.5 0.75
30 1 0.75 0.5 0.75
27 1 0.25 0.75 0.5
31 1 0.75 0.75 0.5
28 1 0 0.75 0.75
32 1 0.5 0.75 0.75
ITEM: TIMESTEP
13
ITEM: NUMBER OF ATOMS
32
ITEM: BOX BOUNDS pp pp pp
-5.0004142214130569e-02 8.0500041422141244e+00
-5.0004142214130569e-02 8.0500041422141244e+00
-5.0004142214130569e-02 8.0500041422141244e+00
ITEM: ATOMS id type xs ys zs
1 1 8.56653e-19 8.56653e-19 8.56653e-19
5 1 0.5 8.56653e-19 8.56653e-19
2 1 0.25 0 0.25
6 1 0.75 8.56653e-19 0.25
3 1 0.25 0.25 8.56653e-19
7 1 0.75 0.25 8.56653e-19
4 1 0 0.25 0.25
8 1 0.5 0.25 0.25
17 1 8.56653e-19 8.56653e-19 0.5
21 1 0.5 8.56653e-19 0.5
18 1 0.25 8.56653e-19 0.75
22 1 0.75 8.56653e-19 0.75
19 1 0.25 0.25 0.5
23 1 0.75 0.25 0.5
20 1 8.56653e-19 0.25 0.75
24 1 0.5 0.25 0.75
9 1 8.56653e-19 0.5 8.56653e-19
13 1 0.5 0.5 8.56653e-19
10 1 0.25 0.5 0.25
14 1 0.75 0.5 0.25
11 1 0.25 0.75 8.56653e-19
15 1 0.75 0.75 8.56653e-19
12 1 8.56653e-19 0.75 0.25
16 1 0.5 0.75 0.25
25 1 8.56653e-19 0.5 0.5
29 1 0.5 0.5 0.5
26 1 0.25 0.5 0.75
30 1 0.75 0.5 0.75
27 1 0.25 0.75 0.5
31 1 0.75 0.75 0.5
28 1 8.56653e-19 0.75 0.75
32 1 0.5 0.75 0.75
ITEM: TIMESTEP
14
ITEM: NUMBER OF ATOMS
32
ITEM: BOX BOUNDS pp pp pp
-5.0004661918859064e-02 8.0500046619188534e+00
-5.0004661918859064e-02 8.0500046619188534e+00
-5.0004661918859064e-02 8.0500046619188534e+00
ITEM: ATOMS id type xs ys zs
1 1 8.56653e-19 8.56653e-19 8.56653e-19
5 1 0.5 8.56653e-19 8.56653e-19
2 1 0.25 0 0.25
6 1 0.75 1.71331e-18 0.25
3 1 0.25 0.25 8.56653e-19
7 1 0.75 0.25 1.71331e-18
4 1 0 0.25 0.25
8 1 0.5 0.25 0.25
17 1 8.56653e-19 8.56653e-19 0.5
21 1 0.5 8.56653e-19 0.5
18 1 0.25 8.56653e-19 0.75
22 1 0.75 1.71331e-18 0.75
19 1 0.25 0.25 0.5
23 1 0.75 0.25 0.5
20 1 8.56653e-19 0.25 0.75
24 1 0.5 0.25 0.75
9 1 8.56653e-19 0.5 8.56653e-19
13 1 0.5 0.5 8.56653e-19
10 1 0.25 0.5 0.25
14 1 0.75 0.5 0.25
11 1 0.25 0.75 1.71331e-18
15 1 0.75 0.75 1.71331e-18
12 1 8.56653e-19 0.75 0.25
16 1 0.5 0.75 0.25
25 1 1.71331e-18 0.5 0.5
29 1 0.5 0.5 0.5
26 1 0.25 0.5 0.75
30 1 0.75 0.5 0.75
27 1 0.25 0.75 0.5
31 1 0.75 0.75 0.5
28 1 1.71331e-18 0.75 0.75
32 1 0.5 0.75 0.75
ITEM: TIMESTEP
15
ITEM: NUMBER OF ATOMS
32
ITEM: BOX BOUNDS pp pp pp
-5.0004661785428589e-02 8.0500046617854224e+00
-5.0004661785428589e-02 8.0500046617854224e+00
-5.0004661785428589e-02 8.0500046617854224e+00
ITEM: ATOMS id type xs ys zs
1 1 1.71331e-18 1.71331e-18 1.71331e-18
5 1 0.5 1.71331e-18 1.71331e-18
2 1 0.25 8.56653e-19 0.25
6 1 0.75 2.56996e-18 0.25
3 1 0.25 0.25 1.71331e-18
7 1 0.75 0.25 2.56996e-18
4 1 8.56653e-19 0.25 0.25
8 1 0.5 0.25 0.25
17 1 1.71331e-18 1.71331e-18 0.5
21 1 0.5 1.71331e-18 0.5
18 1 0.25 1.71331e-18 0.75
22 1 0.75 2.56996e-18 0.75
19 1 0.25 0.25 0.5
23 1 0.75 0.25 0.5
20 1 1.71331e-18 0.25 0.75
24 1 0.5 0.25 0.75
9 1 1.71331e-18 0.5 1.71331e-18
13 1 0.5 0.5 1.71331e-18
10 1 0.25 0.5 0.25
14 1 0.75 0.5 0.25
11 1 0.25 0.75 2.56996e-18
15 1 0.75 0.75 2.56996e-18
12 1 1.71331e-18 0.75 0.25
16 1 0.5 0.75 0.25
25 1 2.56996e-18 0.5 0.5
29 1 0.5 0.5 0.5
26 1 0.25 0.5 0.75
30 1 0.75 0.5 0.75
27 1 0.25 0.75 0.5
31 1 0.75 0.75 0.5
28 1 2.56996e-18 0.75 0.75
32 1 0.5 0.75 0.75
ITEM: TIMESTEP
16
ITEM: NUMBER OF ATOMS
32
ITEM: BOX BOUNDS pp pp pp
-5.0004661785428589e-02 8.0500046617854224e+00
-5.0004661785428589e-02 8.0500046617854224e+00
-5.0004661785428589e-02 8.0500046617854224e+00
ITEM: ATOMS id type xs ys zs
1 1 1.34494e-16 1.34494e-16 1.36208e-16
5 1 0.5 1.32781e-16 1.34494e-16
2 1 0.25 1.16505e-16 0.25
6 1 0.75 1.42204e-16 0.25
3 1 0.25 0.25 1.15648e-16
7 1 0.75 0.25 1.43918e-16
4 1 1.14791e-16 0.25 0.25
8 1 0.5 0.25 0.25
17 1 1.37064e-16 1.34494e-16 0.5
21 1 0.5 1.35351e-16 0.5
18 1 0.25 1.40491e-16 0.75
22 1 0.75 1.70474e-16 0.75
19 1 0.25 0.25 0.5
23 1 0.75 0.25 0.5
20 1 1.39634e-16 0.25 0.75
24 1 0.5 0.25 0.75
9 1 1.34494e-16 0.5 1.34494e-16
13 1 0.5 0.5 1.32781e-16
10 1 0.25 0.5 0.25
14 1 0.75 0.5 0.25
11 1 0.25 0.75 1.43918e-16
15 1 0.75 0.75 1.72187e-16
12 1 1.41348e-16 0.75 0.25
16 1 0.5 0.75 0.25
25 1 1.35351e-16 0.5 0.5
29 1 0.5 0.5 0.5
26 1 0.25 0.5 0.75
30 1 0.75 0.5 0.75
27 1 0.25 0.75 0.5
31 1 0.75 0.75 0.5
28 1 1.68761e-16 0.75 0.75
32 1 0.5 0.75 0.75
ITEM: TIMESTEP
17
ITEM: NUMBER OF ATOMS
32
ITEM: BOX BOUNDS pp pp pp
-5.0004661785429380e-02 8.0500046617854224e+00
-5.0004661785429380e-02 8.0500046617854224e+00
-5.0004661785429380e-02 8.0500046617854224e+00
ITEM: ATOMS id type xs ys zs
1 1 1.38778e-16 1.38778e-16 1.40491e-16
5 1 0.5 1.37064e-16 1.38778e-16
2 1 0.25 1.19931e-16 0.25
6 1 0.75 1.46488e-16 0.25
3 1 0.25 0.25 1.19075e-16
7 1 0.75 0.25 1.48201e-16
4 1 1.18218e-16 0.25 0.25
8 1 0.5 0.25 0.25
17 1 1.41348e-16 1.38778e-16 0.5
21 1 0.5 1.39634e-16 0.5
18 1 0.25 1.44774e-16 0.75
22 1 0.75 1.75614e-16 0.75
19 1 0.25 0.25 0.5
23 1 0.75 0.25 0.5
20 1 1.43918e-16 0.25 0.75
24 1 0.5 0.25 0.75
9 1 1.38778e-16 0.5 1.38778e-16
13 1 0.5 0.5 1.37064e-16
10 1 0.25 0.5 0.25
14 1 0.75 0.5 0.25
11 1 0.25 0.75 1.48201e-16
15 1 0.75 0.75 1.77327e-16
12 1 1.45631e-16 0.75 0.25
16 1 0.5 0.75 0.25
25 1 1.39634e-16 0.5 0.5
29 1 0.5 0.5 0.5
26 1 0.25 0.5 0.75
30 1 0.75 0.5 0.75
27 1 0.25 0.75 0.5
31 1 0.75 0.75 0.5
28 1 1.739e-16 0.75 0.75
32 1 0.5 0.75 0.75
